# vtk DataFile Version 2.0
Fri Aug  3 18:42:20 2018
ASCII
DATASET STRUCTURED_POINTS
DIMENSIONS 10 5 1
ORIGIN 0 0 0
SPACING 1 1 1
POINT_DATA 
SCALARS Druck FLOAT
LOOKUP_TABLE default
0.0005980664782606233
0.0006025972849141129
0.0006052402554619818
0.0006075056587887266
0.0006184551082013264
